+ 0 0 1 tcp 40 ------- 0 0.0 2.0 0 0
d 0 0 1 tcp 40 ------- 0 0.0 2.0 0 0
+ 3 0 1 tcp 40 ---A--- 0 0.0 2.0 0 1
d 3 0 1 tcp 40 ---A--- 0 0.0 2.0 0 1
+ 9 0 1 tcp 40 ---A--- 0 0.0 2.0 0 2
d 9 0 1 tcp 40 ---A--- 0 0.0 2.0 0 2
+ 21 0 1 tcp 40 ---A--- 0 0.0 2.0 0 3
d 21 0 1 tcp 40 ---A--- 0 0.0 2.0 0 3
+ 45 0 1 tcp 40 ---A--- 0 0.0 2.0 0 4
d 45 0 1 tcp 40 ---A--- 0 0.0 2.0 0 4
